# OOMMF OVF 2.0
#
# Segment count: 1
#
# Begin: Segment
# Begin: Header
#
# Title: Oxs_MinDriver::Magnetization
# Desc: Oxs vector field output
# Desc:  MIF source file: /home/david/git/utfsm_oommf_tutorial/scripts/one_dim_dw_template.mif
# Desc:  Iteration: 84, State id: 200
# Desc:  Stage: 0, Stage iteration: 84
# Desc:  Stage simulation time: -1 s
# Desc:  Total simulation time: -2 s
# meshunit: m
# meshtype: irregular
# pointcount: 50
# xstepsize: 2.0000000000000001e-09
# ystepsize: 2.0000000000000001e-09
# zstepsize: 2.0000000000000001e-09
# xmin: 0
# ymin: 0
# zmin: 0
# xmax: 1.0000000000000001e-07
# ymax: 2.0000000000000001e-09
# zmax: 2.0000000000000001e-09
# valuedim: 3
# valuelabels: Magnetization_x Magnetization_y Magnetization_z
# valueunits: A/m A/m A/m
#
# End: Header
#
# Begin: Data Text
 1e-09 1e-09 1e-09 549.498210175852 0 -859999.824448655
 3e-09 1e-09 1e-09 617.128981870522 0 -859999.778576611
 5e-09 1e-09 1e-09 760.71005848811 0 -859999.663558194
 7e-09 1e-09 1e-09 997.923475505084 0 -859999.421016513
 9e-09 1e-09 1e-09 1357.96211278377 0 -859998.927870785
 1.1e-08 1e-09 1e-09 1885.13470633129 0 -859997.933873762
 1.3e-08 1e-09 1e-09 2644.31960851388 0 -859995.934626326
 1.5e-08 1e-09 1e-09 3728.95187758507 0 -859991.91561194
 1.7e-08 1e-09 1e-09 5272.51501840228 0 -859983.837397762
 1.9e-08 1e-09 1e-09 7464.94954342133 0 -859967.600859657
 2.1e-08 1e-09 1e-09 10576.0104944716 0 -859934.96730975
 2.3e-08 1e-09 1e-09 14988.3295002077 0 -859869.379602968
 2.5e-08 1e-09 1e-09 21244.2095012952 0 -859737.566681057
 2.7e-08 1e-09 1e-09 30111.4742788334 0 -859472.686661278
 2.9e-08 1e-09 1e-09 42675.4090018174 0 -858940.515674123
 3.1e-08 1e-09 1e-09 60465.0446063488 0 -857871.772691439
 3.3e-08 1e-09 1e-09 85620.6932002796 0 -855727.232765152
 3.5e-08 1e-09 1e-09 121099.006927676 0 -851431.166049923
 3.7e-08 1e-09 1e-09 170872.886655016 0 -842853.757544084
 3.9e-08 1e-09 1e-09 239967.445590914 0 -825842.373008658
 4.1e-08 1e-09 1e-09 333865.346183014 0 -792549.008338346
 4.3e-08 1e-09 1e-09 456137.274574648 0 -729067.066012182
 4.5e-08 1e-09 1e-09 602233.700669111 0 -613933.685163461
 4.7e-08 1e-09 1e-09 748529.523763497 0 -423442.501473804
 4.9e-08 1e-09 1e-09 846219.33701434 0 -153338.950247517
 5.1e-08 1e-09 1e-09 846219.33701434 0 153338.950247517
 5.3e-08 1e-09 1e-09 748529.523763497 0 423442.501473804
 5.5e-08 1e-09 1e-09 602233.700669111 0 613933.685163461
 5.7e-08 1e-09 1e-09 456137.274574648 0 729067.066012182
 5.9e-08 1e-09 1e-09 333865.346183014 0 792549.008338346
 6.1e-08 1e-09 1e-09 239967.445590914 0 825842.373008658
 6.3e-08 1e-09 1e-09 170872.886655016 0 842853.757544084
 6.5e-08 1e-09 1e-09 121099.006927676 0 851431.166049923
 6.7e-08 1e-09 1e-09 85620.6932002796 0 855727.232765152
 6.9e-08 1e-09 1e-09 60465.0446063488 0 857871.772691439
 7.1e-08 1e-09 1e-09 42675.4090018174 0 858940.515674123
 7.3e-08 1e-09 1e-09 30111.4742788334 0 859472.686661278
 7.5e-08 1e-09 1e-09 21244.2095012952 0 859737.566681057
 7.7e-08 1e-09 1e-09 14988.3295002077 0 859869.379602968
 7.9e-08 1e-09 1e-09 10576.0104944716 0 859934.96730975
 8.1e-08 1e-09 1e-09 7464.94954342133 0 859967.600859657
 8.3e-08 1e-09 1e-09 5272.51501840228 0 859983.837397762
 8.5e-08 1e-09 1e-09 3728.95187758507 0 859991.91561194
 8.7e-08 1e-09 1e-09 2644.31960851388 0 859995.934626326
 8.9e-08 1e-09 1e-09 1885.13470633129 0 859997.933873762
 9.1e-08 1e-09 1e-09 1357.96211278377 0 859998.927870785
 9.3e-08 1e-09 1e-09 997.923475505084 0 859999.421016513
 9.5e-08 1e-09 1e-09 760.71005848811 0 859999.663558194
 9.7e-08 1e-09 1e-09 617.128981870522 0 859999.778576611
 9.9e-08 1e-09 1e-09 549.498210175852 0 859999.824448655
# End: Data Text
# End: Segment
